FoamFile
{
    version     2.0;
    format      ascii;
    class       volScalarField;
    object      T;
}

dimensions    [0 0 0 1 0 0 0];

internalField nonuniform
List<scalar>
121
(
    8.332507645259937e-06
    7.1306523955147804e-06
    5.128083588175331e-06
    2.9617635066258914e-06
    1.3106218144750253e-06
    6.946819571865443e-07
    1.3106218144750253e-06
    2.9617635066258914e-06
    5.128083588175331e-06
    7.1306523955147804e-06
    8.332507645259937e-06
    1.213058103975535e-05
    1.093781855249745e-05
    8.950417940876656e-06
    6.800489296636085e-06
    5.1618450560652396e-06
    4.550550458715596e-06
    5.1618450560652396e-06
    6.800489296636085e-06
    8.950417940876656e-06
    1.093781855249745e-05
    1.213058103975535e-05
    3.671549439347604e-05
    3.5580530071355754e-05
    3.369327217125382e-05
    3.164923547400611e-05
    3.0090519877675836e-05
    2.9508970438328233e-05
    3.0090519877675836e-05
    3.164923547400611e-05
    3.369327217125382e-05
    3.5580530071355754e-05
    3.671549439347604e-05
    8.624026503567788e-05
    8.522313965341487e-05
    8.353516819571864e-05
    8.170468909276248e-05
    8.030835881753312e-05
    7.978725790010192e-05
    8.030835881753312e-05
    8.170468909276248e-05
    8.353516819571864e-05
    8.522313965341487e-05
    8.624026503567788e-05
    0.0001426992864424057
    0.00014181753312945972
    0.00014035474006116207
    0.00013876860346585115
    0.00013755861365953107
    0.00013710703363914372
    0.00013755861365953107
    0.00013876860346585115
    0.00014035474006116207
    0.00014181753312945972
    0.0001426992864424057
    0.0001991590214067278
    0.00019841182466870538
    0.00019717533129459731
    0.00019583282364933738
    0.0001948083588175331
    0.0001944260958205912
    0.0001948083588175331
    0.00019583282364933738
    0.00019717533129459731
    0.00019841182466870538
    0.0001991590214067278
    0.00025561773700305806
    0.00025500713557594285
    0.00025399490316004074
    0.00025289704383282363
    0.00025205810397553515
    0.0002517451580020387
    0.00025205810397553515
    0.00025289704383282363
    0.00025399490316004074
    0.00025500713557594285
    0.00025561773700305806
    0.0003120774719673802
    0.00031160142711518854
    0.000310815494393476
    0.00030996126401630983
    0.0003093078491335372
    0.0003090642201834862
    0.0003093078491335372
    0.00030996126401630983
    0.000310815494393476
    0.00031160142711518854
    0.0003120774719673802
    0.0003685361875637105
    0.00036819571865443423
    0.0003676350662589194
    0.00036702446483180426
    0.0003665586136595311
    0.0003663843017329255
    0.0003665586136595311
    0.00036702446483180426
    0.0003676350662589194
    0.00036819571865443423
    0.0003685361875637105
    0.0004249959225280326
    0.0004247900101936798
    0.0004244556574923547
    0.0004240886850152905
    0.0004238083588175331
    0.000423703363914373
    0.0004238083588175331
    0.0004240886850152905
    0.0004244556574923547
    0.0004247900101936798
    0.0004249959225280326
    0.0004814546381243628
    0.0004813853211009174
    0.00048127522935779814
    0.00048115290519877666
    0.00048105810397553513
    0.0004810224260958205
    0.00048105810397553513
    0.00048115290519877666
    0.00048127522935779814
    0.0004813853211009174
    0.0004814546381243628
);

boundaryField
{
    inlet
    {
        type    cyclic;
    }
    outlet
    {
        type    cyclic;
    }
    top
    {
        type    zeroGradient;
    }
    bottom
    {
        type    zeroGradient;
    }
    frontAndBackPlanes
    {
        type    empty;
    }
}
