FoamFile
{
    version     2.0;
    format      ascii;
    class       volScalarField;
    object      T;
}

dimensions    [0 0 0 1 0 0 0];

internalField nonuniform
List<scalar>
110
(
    8.332507645259937e-06
    7.1306523955147804e-06
    5.128083588175331e-06
    2.9617635066258914e-06
    1.3106218144750253e-06
    6.946819571865443e-07
    1.3106218144750253e-06
    2.9617635066258914e-06
    5.128083588175331e-06
    7.1306523955147804e-06
    8.332507645259937e-06
    1.213058103975535e-05
    1.093781855249745e-05
    8.950417940876656e-06
    6.800489296636085e-06
    5.1618450560652396e-06
    4.550550458715596e-06
    5.1618450560652396e-06
    6.800489296636085e-06
    8.950417940876656e-06
    1.093781855249745e-05
    1.213058103975535e-05
    3.671549439347604e-05
    3.5580530071355754e-05
    3.369327217125382e-05
    3.164923547400611e-05
    3.0090519877675836e-05
    2.9508970438328233e-05
    3.0090519877675836e-05
    3.164923547400611e-05
    3.369327217125382e-05
    3.5580530071355754e-05
    3.671549439347604e-05
    9.027319062181447e-05
    8.926503567787971e-05
    8.759418960244647e-05
    8.578103975535166e-05
    8.439745158002038e-05
    8.388103975535167e-05
    8.439745158002038e-05
    8.578103975535166e-05
    8.759418960244647e-05
    8.926503567787971e-05
    9.027319062181447e-05
    0.00015479816513761465
    0.00015394495412844036
    0.00015253109072375126
    0.00015099694189602445
    0.00014982568807339448
    0.00014938837920489294
    0.00014982568807339448
    0.00015099694189602445
    0.00015253109072375126
    0.00015394495412844036
    0.00015479816513761465
    0.00021932313965341484
    0.00021862385321100912
    0.00021746890927624868
    0.00021621304791029562
    0.00021525484199796125
    0.0002148970438328236
    0.00021525484199796125
    0.00021621304791029562
    0.00021746890927624868
    0.00021862385321100912
    0.00021932313965341484
    0.00028384811416921505
    0.0002833037716615698
    0.0002824057084607543
    0.00028142915392456676
    0.00028068297655453616
    0.00028040468909276245
    0.00028068297655453616
    0.00028142915392456676
    0.0002824057084607543
    0.0002833037716615698
    0.00028384811416921505
    0.0003483720693170234
    0.0003479826707441386
    0.00034734352701325174
    0.0003466452599388379
    0.00034611213047910293
    0.00034591233435270126
    0.00034611213047910293
    0.0003466452599388379
    0.00034734352701325174
    0.0003479826707441386
    0.0003483720693170234
    0.0004128970438328236
    0.0004126625891946992
    0.00041228032619775734
    0.00041186136595310904
    0.0004115402650356778
    0.00041141997961264014
    0.0004115402650356778
    0.00041186136595310904
    0.00041228032619775734
    0.0004126625891946992
    0.0004128970438328236
    0.0004774220183486238
    0.0004773425076452598
    0.0004772181447502548
    0.0004770774719673802
    0.00047696839959225276
    0.0004769276248725789
    0.00047696839959225276
    0.0004770774719673802
    0.0004772181447502548
    0.0004773425076452598
    0.0004774220183486238
);

boundaryField
{
    inlet
    {
        type    cyclic;
    }
    outlet
    {
        type    cyclic;
    }
    top
    {
        type    zeroGradient;
    }
    bottom
    {
        type    zeroGradient;
    }
    frontAndBackPlanes
    {
        type    empty;
    }
}
