FoamFile
{
    version     2.0;
    format      ascii;
    class       volScalarField;
    object      T;
}

dimensions    [0 0 0 1 0 0 0];

internalField nonuniform
List<scalar>
121
(
    8.052650356778797e-06
    6.850316004077471e-06
    4.847533129459734e-06
    2.68177370030581e-06
    1.0315800203873598e-06
    4.1611314984709475e-07
    1.0315800203873598e-06
    2.68177370030581e-06
    4.847533129459734e-06
    6.850316004077471e-06
    8.052650356778797e-06
    1.7855249745158e-05
    1.6712538226299692e-05
    1.4811009174311924e-05
    1.275341488277268e-05
    1.118532110091743e-05
    1.0600407747196737e-05
    1.118532110091743e-05
    1.275341488277268e-05
    1.4811009174311924e-05
    1.6712538226299692e-05
    1.7855249745158e-05
    4.5074006116207945e-05
    4.4096839959225274e-05
    4.247614678899082e-05
    4.071916411824668e-05
    3.9379102956167175e-05
    3.887900101936799e-05
    3.9379102956167175e-05
    4.071916411824668e-05
    4.247614678899082e-05
    4.4096839959225274e-05
    4.5074006116207945e-05
    8.036289500509684e-05
    7.960244648318041e-05
    7.834260958205912e-05
    7.697594291539245e-05
    7.593323139653414e-05
    7.554413863404688e-05
    7.593323139653414e-05
    7.697594291539245e-05
    7.834260958205912e-05
    7.960244648318041e-05
    8.036289500509684e-05
    0.00011565137614678898
    0.00011510805300713557
    0.00011420897043832824
    0.00011323241590214065
    0.00011248725790010192
    0.00011220897043832821
    0.00011248725790010192
    0.00011323241590214065
    0.00011420897043832824
    0.00011510805300713557
    0.00011565137614678898
    0.00015094087665647296
    0.0001506136595310907
    0.0001500754332313965
    0.0001494892966360856
    0.00014904179408766562
    0.00014887461773700305
    0.00014904179408766562
    0.0001494892966360856
    0.0001500754332313965
    0.0001506136595310907
    0.00015094087665647296
    0.00018622935779816511
    0.00018611926605504583
    0.0001859418960244648
    0.00018574617737003056
    0.0001855953109072375
    0.000185539245667686
    0.0001855953109072375
    0.00018574617737003056
    0.0001859418960244648
    0.00018611926605504583
    0.00018622935779816511
    0.00024209989806320078
    0.00024209989806320078
    0.00024209989806320078
    0.00024209989806320078
    0.00024209989806320078
    0.00024209989806320078
    0.00024209989806320078
    0.00024209989806320078
    0.00024209989806320078
    0.00024209989806320078
    0.00024209989806320078
    0.00031855249745158
    0.00031855249745158
    0.00031855249745158
    0.00031855249745158
    0.00031855249745158
    0.00031855249745158
    0.00031855249745158
    0.00031855249745158
    0.00031855249745158
    0.00031855249745158
    0.00031855249745158
    0.00039500509683995915
    0.00039500509683995915
    0.00039500509683995915
    0.00039500509683995915
    0.00039500509683995915
    0.00039500509683995915
    0.00039500509683995915
    0.00039500509683995915
    0.00039500509683995915
    0.00039500509683995915
    0.00039500509683995915
    0.0004714576962283384
    0.0004714576962283384
    0.0004714576962283384
    0.0004714576962283384
    0.0004714576962283384
    0.0004714576962283384
    0.0004714576962283384
    0.0004714576962283384
    0.0004714576962283384
    0.0004714576962283384
    0.0004714576962283384
);

boundaryField
{
    inlet
    {
        type    cyclic;
    }
    outlet
    {
        type    cyclic;
    }
    top
    {
        type    zeroGradient;
    }
    bottom
    {
        type    zeroGradient;
    }
    frontAndBackPlanes
    {
        type    empty;
    }
}
